BEGIN_CFG
 Size
    27
 Supercell
         50.000000      0.000000      0.000000
         0.000000      50.000000      0.000000
         0.000000      0.000000      50.000000
 AtomData:  id type       cartes_x      cartes_y      cartes_z           fx          fy          fz
             1    1       0.326570     -1.012860      0.721073     0.170929    0.132742    0.795558
             2    1      -0.194616      0.258303      0.834139    -0.894940   -0.448695   -1.909416
             3    1       0.792494     -1.602447      1.904380     0.310935    0.075699    1.626127
             4    0       0.435148     -1.597844     -0.178973    -0.355445    0.185522   -0.419745
             5    1      -0.069841      0.978772      2.048045    -0.052357    2.218293   -1.286384
             6    3      -0.825514      0.947641     -0.232082    -0.148201   -0.957954    0.548607
             7    2      -0.290066      2.373824      1.862347     0.227620   -2.072748   -0.797496
             8    2       0.388377      0.476648      3.170639     0.062258   -2.211694   -0.291261
             9    0      -0.984163      2.631645      1.177832     0.067102   -0.347128   -0.206937
            10    0      -0.356134      2.919355      2.659513    -0.043802    0.973301    2.120215
            11    1       0.729256     -0.880361      3.096526    -0.650109    1.941089   -1.044927
            12    0       0.891113     -1.332126      4.048928     0.529574   -0.341575    0.599311
            13    0       1.212495     -2.616993      1.957613    -0.341538    0.353264   -0.291671
            14    1      -1.550590      0.139920     -1.198943     1.635424   -1.304462   -0.119564
            15    1      -2.931435     -0.318689     -0.848822    -1.563550    1.023038    1.358061
            16    0      -0.880271     -0.722701     -1.504956    -0.871202    0.873209    0.128325
            17    0      -1.710752      0.768542     -2.056553     0.590279    0.628910   -0.497290
            18    1      -3.367098     -1.638686     -0.723940    -0.171161    0.592220    0.385310
            19    1      -3.881939      0.737980     -0.590664     2.666044   -0.915446   -0.392239
            20    1      -4.661438     -1.927147     -0.270815    -0.362906    0.629766   -0.372234
            21    0      -2.715370     -2.461576     -0.924944     0.669321   -0.449530   -0.088586
            22    1      -5.577042     -0.878277     -0.113280     0.245666   -1.353522    0.215320
            23    0      -4.952946     -2.961563     -0.082275    -0.006237    0.164099   -0.105187
            24    1      -5.173815      0.434213     -0.299089    -1.019994    0.121951    0.205446
            25    0      -6.595250     -1.102195      0.206246     0.073075    0.082384   -0.116584
            26    0      -5.927594      1.193535     -0.201956    -0.164823    0.554071    0.207285
            27    0      -3.448557      1.747867     -0.567472    -0.601960   -0.146801   -0.250043
 Energy
     -17660.461737861464
END_CFG

BEGIN_CFG
 Size
    27
 Supercell
         50.000000      0.000000      0.000000
         0.000000      50.000000      0.000000
         0.000000      0.000000      50.000000
 AtomData:  id type       cartes_x      cartes_y      cartes_z           fx          fy          fz
             1    1      -1.111052     -0.023867      2.100387     1.548644    2.051706   -0.195799
             2    1      -0.485487      0.419654      0.933572     0.648824    0.621316    0.723265
             3    1      -0.796058      0.613148      3.307520     1.174960    0.893007    0.308930
             4    0      -1.837308     -0.755382      2.140022    -1.583077   -1.714877   -0.356852
             5    1       0.436643      1.496289      1.050487    -0.312952    0.296282   -0.610004
             6    3      -0.599383      0.000313     -0.341255    -0.783644   -1.706252   -1.491477
             7    2       1.138339      1.996558     -0.043633     1.259066    1.750701    0.454048
             8    2       0.646863      2.079382      2.205507     2.319451    1.354527   -0.747033
             9    0       0.849485      1.810928     -0.995451    -0.128111   -0.056356    0.381842
            10    0       1.739878      2.886503      0.114653    -1.817831   -2.414164   -0.200518
            11    1       0.178213      1.633329      3.331066    -1.744152   -1.015806    1.283841
            12    0       0.546899      2.129460      4.271035    -0.637675   -0.502392   -0.883773
            13    0      -1.298466      0.382269      4.222970    -0.297475   -0.555551    0.465652
            14    1      -1.225602     -1.276619     -0.583444    -0.606678   -0.170165    0.840761
            15    1      -2.769654     -1.264891     -0.525613     1.992375   -2.790998    1.622304
            16    0      -0.890654     -2.012599      0.199658    -0.043223    0.682331   -0.599071
            17    0      -0.930914     -1.707359     -1.558451     0.364358    0.781711    0.211424
            18    1      -3.301598     -2.351821      0.221472    -0.665599    0.915095   -0.311455
            19    1      -3.611413     -0.408112     -1.162772     1.234562    1.293743   -0.959295
            20    1      -4.650272     -2.478509      0.377293    -2.023852   -0.503336   -0.008179
            21    0      -2.840316     -3.115464      0.788446     1.914672   -0.411812    0.263571
            22    1      -5.515322     -1.588492     -0.232028    -0.723067    0.629105    0.885124
            23    0      -5.168219     -3.255950      0.974437     0.957224    0.193779   -0.173862
            24    1      -4.959597     -0.548101     -0.982143    -3.412704    1.137292   -0.447238
            25    0      -6.582586     -1.674034      0.129555     1.017114    0.489789   -1.199920
            26    0      -5.685951      0.220444     -1.392508     1.074790   -0.906094    0.270152
            27    0      -3.133433      0.383013     -1.781944    -0.726000   -0.342579    0.473562
 Energy
     -17660.123896459965
END_CFG

BEGIN_CFG
 Size
    27
 Supercell
         50.000000      0.000000      0.000000
         0.000000      50.000000      0.000000
         0.000000      0.000000      50.000000
 AtomData:  id type       cartes_x      cartes_y      cartes_z           fx          fy          fz
             1    1      -3.339900      1.259598     -2.325766     0.722236    0.297125    0.923226
             2    1      -2.034577      1.129070     -1.871634     1.184771    0.676438   -0.621178
             3    1      -3.911603      2.517505     -2.300617     0.294152    2.165730   -0.526163
             4    0      -3.935957      0.437558     -2.601835    -0.590368   -1.230419   -0.295501
             5    1      -1.285283      2.308109     -1.600684     1.253373    0.701957    1.510446
             6    3      -1.290392     -0.044233     -1.763504    -1.920576   -0.298712    0.317046
             7    2       0.028743      2.148426     -1.045178    -1.474090   -2.202598   -1.542708
             8    2      -1.768087      3.554065     -1.675537    -1.025403   -1.301950   -0.543196
             9    0       0.380180      1.283977     -1.500263     0.276103    0.818744    0.875320
            10    0       0.670880      2.908730     -1.148220    -0.064187    0.694271   -0.273122
            11    1      -3.072113      3.607393     -2.033307     0.007076    1.535464    0.085090
            12    0      -3.438175      4.672199     -2.125956     0.067276   -1.309321    0.161380
            13    0      -4.931289      2.789649     -2.615646     0.387790   -0.690057    0.151419
            14    1      -2.127741     -1.073428     -1.175092     0.785276   -0.297100    0.532624
            15    1      -2.601797     -0.705974      0.253866    -1.797494   -0.657848   -1.816563
            16    0      -1.483555     -1.940390     -1.017571     0.427158   -0.006123   -0.295276
            17    0      -2.889233     -1.449559     -1.911530     0.130588    0.730074    0.858293
            18    1      -3.954385     -0.932848      0.597180     0.988680    0.902632    1.447325
            19    1      -1.746341     -0.240777      1.218442     1.124396    0.678420    2.133268
            20    1      -4.352242     -0.762817      1.954145    -0.081145    0.173229   -2.086619
            21    0      -4.681621     -1.091337     -0.191307    -0.131131   -0.458394    0.094946
            22    1      -3.543423     -0.282846      2.960202     1.024154    0.033023   -1.804842
            23    0      -5.371287     -0.889288      2.164073    -1.622464   -0.475313    0.320976
            24    1      -2.236099      0.033312      2.527923    -0.317684   -1.482719    0.112604
            25    0      -3.979780     -0.182930      3.950709     0.578321    0.204328    0.114547
            26    0      -1.543907      0.191440      3.317897     0.962372    0.832257    0.426239
            27    0      -0.642406     -0.102627      1.075303    -1.189180   -0.033139   -0.259581
 Energy
     -17660.26584721363
END_CFG

BEGIN_CFG
 Size
    27
 Supercell
         50.000000      0.000000      0.000000
         0.000000      50.000000      0.000000
         0.000000      0.000000      50.000000
 AtomData:  id type       cartes_x      cartes_y      cartes_z           fx          fy          fz
             1    1      -0.850117     -0.054677     -2.034743    -0.602174   -1.132329    0.835603
             2    1      -1.292655      1.143100     -1.522713    -0.080453    1.140829   -0.836487
             3    1      -0.744587     -0.196767     -3.447491    -0.298406    3.071418    2.384736
             4    0      -0.691665     -0.928610     -1.339062    -0.095240    0.985518   -0.862557
             5    1      -1.579482      2.253579     -2.412869     0.413142   -0.918508   -0.332552
             6    3      -1.452713      1.550364     -0.238853     0.067345   -0.671087    1.072466
             7    2      -2.105343      3.424537     -1.963156     0.014799   -0.484026    2.540185
             8    2      -1.316112      2.167782     -3.698821     0.571348   -1.218490   -0.910585
             9    0      -2.343316      3.520508     -0.953069     0.258175   -0.125821   -1.603135
            10    0      -2.441569      4.072817     -2.634424    -0.189011    0.476923   -0.453930
            11    1      -0.871876      0.956711     -4.168966    -0.671513    0.653317   -0.622888
            12    0      -0.660008      0.868510     -5.239753    -0.216665    0.513612    0.096071
            13    0      -0.510128     -1.065838     -3.920427     0.845624   -2.635667   -1.132557
            14    1      -1.604005      0.637047      0.830879     0.813217   -2.251972   -0.142384
            15    1      -3.057973      0.272309      1.140652     0.987181   -0.270688   -0.134708
            16    0      -1.187217      1.139880      1.708387     0.021659    0.063548   -0.080867
            17    0      -0.952137     -0.395674      0.741142    -1.435286    2.555519   -0.218253
            18    1      -3.324870      0.064160      2.480272     0.587376   -0.206778    1.918026
            19    1      -4.048318     -0.009893      0.210362     0.128787    0.271883   -1.995894
            20    1      -4.569360     -0.367333      2.924540    -0.509047    0.420692   -1.693232
            21    0      -2.507159      0.209505      3.232143    -0.676803   -0.018301   -0.681429
            22    1      -5.586246     -0.521141      1.957886     1.695400    0.395352    0.916605
            23    0      -4.851505     -0.519722      3.954302     0.347989    0.037048    0.367641
            24    1      -5.326442     -0.370546      0.597627    -0.278824   -0.280529    1.084883
            25    0      -6.507680     -0.686135      2.433077    -1.783852   -0.598254   -0.259825
            26    0      -6.105967     -0.583584     -0.117543    -0.109168    0.124247   -0.306618
            27    0      -3.873565      0.056532     -0.894115     0.194401    0.102545    1.051685
 Energy
     -17660.337903561933
END_CFG

BEGIN_CFG
 Size
    27
 Supercell
         50.000000      0.000000      0.000000
         0.000000      50.000000      0.000000
         0.000000      0.000000      50.000000
 AtomData:  id type       cartes_x      cartes_y      cartes_z           fx          fy          fz
             1    1      -2.918365      1.709961     -1.906060     1.776156    0.738272    0.035775
             2    1      -1.812340      1.894648     -1.068175    -0.984666    0.758465   -1.081498
             3    1      -3.872181      2.725304     -1.971955     0.369168   -0.401572    1.333472
             4    0      -2.943685      0.936112     -2.653860     0.097676   -0.508799   -0.048380
             5    1      -1.791185      3.026288     -0.212522    -0.124373   -0.861394    0.495859
             6    3      -0.660043      1.168952     -1.055834    -0.582172   -1.436556   -0.794277
             7    2      -0.681236      3.198778      0.571147     0.463804   -0.093075    0.206155
             8    2      -2.832965      3.826071     -0.070088    -0.577531   -0.007455   -0.983460
             9    0       0.045135      2.464556      0.491358    -0.815828    1.047825    0.516680
            10    0      -0.788150      3.826483      1.376001     0.374262   -0.657031   -0.616638
            11    1      -3.842453      3.677008     -0.979103     1.082032    0.568197    0.720785
            12    0      -4.582544      4.441137     -0.866492    -0.712500    0.318465   -0.173855
            13    0      -4.612518      2.659818     -2.720924    -1.081641    0.146883   -0.604778
            14    1      -0.800551     -0.245451     -1.359630    -0.801656   -0.227766    1.019719
            15    1      -1.952869     -0.904036     -0.572505    -0.994960   -0.782207   -0.910010
            16    0       0.130019     -0.574275     -0.943917     0.720120   -0.789905   -0.008719
            17    0      -0.860712     -0.592764     -2.419940     0.039382    1.040294    0.326308
            18    1      -2.884656     -1.808834     -1.161257     1.175398    1.217108    1.005708
            19    1      -2.178187     -0.573756      0.761911    -0.268188   -0.149238    0.754064
            20    1      -3.861118     -2.378790     -0.340483     0.689353   -0.031948   -2.219607
            21    0      -2.858876     -2.017609     -2.225226     0.047143   -0.133156   -0.098270
            22    1      -3.993472     -2.127745      0.973360    -0.168852    0.693468    3.115932
            23    0      -4.571747     -3.000461     -0.806047    -0.835511   -1.054593   -0.586529
            24    1      -3.164339     -1.146971      1.578249    -0.253664   -0.410017   -0.958532
            25    0      -4.758637     -2.697967      1.552127     0.557009    0.733991   -0.369289
            26    0      -3.328832     -0.791762      2.609258     0.235089   -0.335380   -0.513059
            27    0      -1.567221      0.193548      1.179543     0.574949    0.617126    0.436444
 Energy
     -17660.546333880102
END_CFG

BEGIN_CFG
 Size
    27
 Supercell
         50.000000      0.000000      0.000000
         0.000000      50.000000      0.000000
         0.000000      0.000000      50.000000
 AtomData:  id type       cartes_x      cartes_y      cartes_z           fx          fy          fz
             1    1       1.214129     -0.398502     -1.493334    -0.429094    1.999600    0.144938
             2    1       0.636624      0.844407     -1.126528    -0.477488   -1.022247    0.341144
             3    1       2.608442     -0.444389     -1.616581    -0.969498   -0.835383   -0.613316
             4    0       0.517567     -1.188609     -1.729002     0.116184   -0.555959    0.146232
             5    1       1.432659      1.985457     -0.955516     0.116675    0.173148   -0.207225
             6    3      -0.717542      1.005133     -0.857898     0.319659   -0.078132   -1.126696
             7    2       0.862275      3.191109     -0.511084     1.472357   -1.572434    0.123917
             8    2       2.749099      1.907337     -1.184300    -0.229494    1.070072    0.497297
             9    0      -0.066471      3.383144     -0.770441    -1.294219   -0.068188   -0.389442
            10    0       1.470863      3.969308     -0.605931     0.633465    0.642045   -0.106715
            11    1       3.290843      0.736584     -1.474987     1.482560   -0.444040    0.815453
            12    0       4.398652      0.624917     -1.430139    -0.660744    0.722754   -0.434491
            13    0       3.155865     -1.349185     -1.891341    -0.268545    0.106629    0.134739
            14    1      -1.242901      0.216084      0.209057     0.679507   -0.375692   -0.876907
            15    1      -2.748726     -0.004752     -0.014129     0.849909    0.349948    0.492469
            16    0      -0.940443      0.781950      1.111161    -0.783368   -0.567841    0.210146
            17    0      -0.670573     -0.743304      0.179681    -0.607788    0.335852    0.399808
            18    1      -3.324569     -0.292721     -1.251954    -0.275669   -0.019995    0.280808
            19    1      -3.562416      0.146389      1.096519    -0.383301    0.178103    1.189344
            20    1      -4.729664     -0.480788     -1.318087     0.517112    0.393791   -1.519355
            21    0      -2.638773     -0.318762     -2.103278    -0.507790   -0.131273   -0.105948
            22    1      -5.523749     -0.307698     -0.205275    -0.292337    0.026464    0.884543
            23    0      -5.262530     -0.616292     -2.286905     0.755510   -0.191438    0.599738
            24    1      -4.940230      0.033374      1.021523    -1.069363   -0.047000   -0.010896
            25    0      -6.611619     -0.437451     -0.251596     0.331823    0.121319   -0.184109
            26    0      -5.632109      0.252455      1.869434     0.904187   -0.314170   -0.458733
            27    0      -3.122924      0.368191      2.073132     0.069750    0.104069   -0.226742
 Energy
     -17660.73727509832
END_CFG

BEGIN_CFG
 Size
    27
 Supercell
         50.000000      0.000000      0.000000
         0.000000      50.000000      0.000000
         0.000000      0.000000      50.000000
 AtomData:  id type       cartes_x      cartes_y      cartes_z           fx          fy          fz
             1    1      -1.591740      0.037366      2.105445    -0.738379   -0.238404   -0.520744
             2    1      -0.730764      0.707126      1.265988     0.142472    0.233818   -0.400957
             3    1      -2.070066      0.673190      3.254338     0.201616   -0.040258    0.804446
             4    0      -1.988131     -0.913395      1.728501     0.024348    0.260029    0.545814
             5    1      -0.231483      1.986970      1.633911     0.673484    1.045331    1.903320
             6    3      -0.381386      0.240299      0.017196     0.513082    1.982156    0.598537
             7    2       0.682439      2.705316      0.839909    -1.375313   -2.555639   -1.583760
             8    2      -0.516976      2.510834      2.872077    -0.718560   -1.265566   -1.822645
             9    0       0.539967      2.488899     -0.185650     0.548995    0.757786    1.788556
            10    0       0.873619      3.644101      1.117622    -0.185403    0.542028    0.070606
            11    1      -1.468940      1.863579      3.605304     0.971618    1.810771    0.106076
            12    0      -1.718786      2.469878      4.507727    -0.084477   -0.951169   -0.488013
            13    0      -2.831087      0.267575      3.928850     0.231830   -0.181507   -0.417444
            14    1      -0.563019     -1.064291     -0.356284     0.754523   -1.404563   -1.098312
            15    1      -2.005189     -1.491235     -0.600406     1.164042    0.425270   -0.955802
            16    0      -0.059390     -1.782175      0.292470    -0.119211   -0.050276    0.902115
            17    0       0.113263     -1.155580     -1.258638    -1.231282    0.057061    0.268898
            18    1      -2.302971     -2.844103     -0.600666    -0.774844   -0.185416    0.414205
            19    1      -2.941662     -0.577005     -1.003547    -2.560097   -0.158519   -0.875006
            20    1      -3.580381     -3.293737     -0.880348    -0.976499    0.069250   -0.403149
            21    0      -1.551487     -3.493529     -0.214919     0.551296   -0.855060    0.046145
            22    1      -4.579327     -2.363163     -1.283657     1.130732    0.199736    0.204272
            23    0      -3.860030     -4.360983     -0.790417     0.301184    0.639925    0.000377
            24    1      -4.268714     -1.015194     -1.426747     2.879869   -0.088440    1.944414
            25    0      -5.594181     -2.670705     -1.396405    -0.672623   -0.437400   -0.346170
            26    0      -4.979660     -0.245254     -1.616210    -0.746488    0.310437   -0.439273
            27    0      -2.726898      0.484700     -0.939346     0.094083    0.078619   -0.246504
 Energy
     -17660.5732766452
END_CFG

BEGIN_CFG
 Size
    27
 Supercell
         50.000000      0.000000      0.000000
         0.000000      50.000000      0.000000
         0.000000      0.000000      50.000000
 AtomData:  id type       cartes_x      cartes_y      cartes_z           fx          fy          fz
             1    1       0.694556      0.883968      1.276949     1.619799   -0.393620    0.076155
             2    1      -0.528672      0.926634      0.690297    -0.373650    1.336901   -1.434863
             3    1       0.923272      1.471002      2.559032     1.096131   -1.906375    0.382444
             4    0       1.528709      0.357074      0.752255    -0.674086    0.443586    0.495373
             5    1      -1.499555      1.733503      1.351411    -1.105443   -0.756018   -0.412347
             6    3      -0.790460      0.466059     -0.637802     0.453527    2.066913    1.967297
             7    2      -2.727841      1.901267      0.748291     0.195954   -0.044242   -0.408643
             8    2      -1.342968      2.239828      2.549787     1.086798   -0.094200    1.483053
             9    0      -2.896182      1.180964      0.070844    -0.228704   -0.102116   -0.500628
            10    0      -3.515260      2.043712      1.358528     0.100145    0.183217    0.341408
            11    1      -0.159679      2.028427      3.209321    -0.777178    0.760184   -0.028266
            12    0      -0.166125      2.365116      4.287632     0.283119   -0.311420   -1.347594
            13    0       1.904740      1.157808      3.052253    -1.465242    1.009604   -0.466455
            14    1      -0.798752     -0.903897     -0.709147    -0.159450   -2.314577    0.854357
            15    1      -2.138459     -1.494922     -0.281791     1.768931    0.093221    1.187741
            16    0      -0.084526     -1.343279     -0.002495     0.482819    0.105707   -0.096645
            17    0      -0.479646     -1.222597     -1.703919    -0.312395    0.120495   -0.219694
            18    1      -2.953037     -2.017886     -1.217268    -3.106945   -1.776642   -1.472897
            19    1      -2.443734     -1.620462      1.109617    -0.310673    0.921344    0.471672
            20    1      -4.251426     -2.553023     -0.835389     3.231726    1.197188   -1.003307
            21    0      -2.674888     -2.130825     -2.296853    -0.045869    0.465753    1.038778
            22    1      -4.617702     -2.455546      0.472081    -1.595626   -0.652145    0.558382
            23    0      -4.779705     -3.026442     -1.629485    -1.006609   -0.262885   -0.248559
            24    1      -3.747896     -2.023339      1.473137     1.460508    0.350338   -0.394411
            25    0      -5.630350     -2.782791      0.754364     0.407560    0.057711    0.020130
            26    0      -4.113491     -2.055826      2.493776     0.320251    0.087692    0.169317
            27    0      -1.657817     -1.275135      1.867419    -1.345400   -0.585613   -1.011798
 Energy
     -17660.326445659128
END_CFG

BEGIN_CFG
 Size
    27
 Supercell
         50.000000      0.000000      0.000000
         0.000000      50.000000      0.000000
         0.000000      0.000000      50.000000
 AtomData:  id type       cartes_x      cartes_y      cartes_z           fx          fy          fz
             1    1       0.357555      0.703983     -0.665745     0.089120    0.392740   -2.128569
             2    1      -0.460686      1.026288     -1.775880     0.946453   -1.117185   -0.295834
             3    1       1.708242      0.320690     -0.859207     0.506511   -0.886290   -1.310398
             4    0      -0.007510      0.812314      0.306923    -0.494675    0.031569    1.510175
             5    1       0.187113      0.844175     -3.062810    -1.125572   -0.155681   -0.065995
             6    3      -1.852293      1.305078     -1.852639     1.491087    0.032338    1.263320
             7    2      -0.567964      1.180776     -4.168719     0.583038   -0.066588   -0.518794
             8    2       1.427799      0.346728     -3.279740    -0.825028    1.001136    1.119214
             9    0      -1.563686      1.385706     -4.149781     0.676325   -0.052679    0.353555
            10    0      -0.055460      1.283702     -5.040670    -0.366918   -0.229367    0.306664
            11    1       2.186202      0.120146     -2.177268    -1.877047    1.400685    0.556463
            12    0       3.219791     -0.027124     -2.403000     0.701696   -0.715319    0.122888
            13    0       2.382505     -0.006856     -0.047808    -0.619868    0.581183   -0.142930
            14    1      -2.458323      1.916896     -0.648354     2.594410   -0.728741   -1.480847
            15    1      -2.361147      1.034079      0.547644    -0.380696   -0.379301    0.522029
            16    0      -3.457310      2.014259     -0.952591    -1.636295    0.551259   -0.366129
            17    0      -1.936874      2.869596     -0.572466    -0.284897    0.379188    0.604150
            18    1      -2.577733     -0.321630      0.367664    -1.204002   -1.545736    1.160155
            19    1      -2.109321      1.475641      1.840377     1.401139    1.134490    0.484982
            20    1      -2.586901     -1.255491      1.442108     1.332614   -0.256659    0.383498
            21    0      -2.953531     -0.669665     -0.577575     0.375906   -0.184310   -0.630673
            22    1      -2.245065     -0.837718      2.740313    -0.663179    2.214093   -1.271628
            23    0      -2.614680     -2.356927      1.316777    -0.578468    0.775570   -0.526291
            24    1      -2.030627      0.550211      2.883953    -0.026869   -0.209910    0.092853
            25    0      -2.269576     -1.428065      3.639470     0.214768   -0.627488   -0.011461
            26    0      -1.756318      0.938003      3.846222     0.062072    0.134563    0.595785
            27    0      -1.751137      2.544873      2.041109    -0.891625   -1.473560   -0.326181
 Energy
     -17660.219592071073
END_CFG

BEGIN_CFG
 Size
    27
 Supercell
         50.000000      0.000000      0.000000
         0.000000      50.000000      0.000000
         0.000000      0.000000      50.000000
 AtomData:  id type       cartes_x      cartes_y      cartes_z           fx          fy          fz
             1    1       0.471552      0.837137     -0.759741    -0.259385    0.919966    3.377247
             2    1      -0.392173      1.046948     -1.781340     1.311123   -0.416777   -1.209699
             3    1       1.760703      0.399975     -0.992088     1.679398   -1.519519   -1.426181
             4    0       0.163756      1.091129      0.317250     0.431809   -0.576550   -1.768378
             5    1       0.058833      0.753358     -3.091905    -1.096061    0.331876   -2.073687
             6    3      -1.601993      1.536901     -1.721876    -2.902808    0.567164    0.338637
             7    2      -0.812329      0.924241     -4.214868    -0.244210    0.436488    1.170800
             8    2       1.251734      0.319119     -3.366600     2.009729   -0.323122    0.874828
             9    0      -1.348830      1.788297     -4.130939    -0.023747   -0.451596   -0.129621
            10    0      -0.412902      0.811540     -5.149784     0.341409    0.052360    0.843782
            11    1       2.130653      0.154307     -2.333776    -1.885442    0.170334    0.666347
            12    0       3.076927     -0.240376     -2.631705     0.753287   -0.193391    0.056322
            13    0       2.419144      0.045001     -0.173737    -0.339700    0.717960   -0.486756
            14    1      -2.204733      1.971979     -0.491252     0.512337    0.176106   -1.143358
            15    1      -2.281719      0.988812      0.613948    -0.030853   -1.421702    0.460995
            16    0      -3.238850      2.145988     -0.819050     0.300693    0.886475    0.109605
            17    0      -1.595283      2.840384     -0.159339    -0.903665    0.048665   -0.087669
            18    1      -2.646390     -0.371116      0.383362    -0.098001    1.291977    0.307174
            19    1      -2.063883      1.447577      1.898274     0.556189   -1.344900    2.809135
            20    1      -2.678088     -1.288602      1.425941    -0.508659    0.855801   -0.412682
            21    0      -3.050354     -0.604317     -0.599363     0.348959   -0.276318   -0.097864
            22    1      -2.310686     -0.856595      2.712242    -0.194704    0.894705    0.896570
            23    0      -3.182241     -2.238401      1.200951     0.697145    0.003660    0.492964
            24    1      -2.031811      0.518575      3.017460    -1.052312   -1.801869   -4.353219
            25    0      -2.382492     -1.586342      3.532103     0.189185    0.336786   -0.203937